<?xml version="1.0"?>
<VTKFile type="UnstructuredGrid"  version="0.1"  >
<UnstructuredGrid>
<Piece  NumberOfPoints="3178" NumberOfCells="16374">
<Points>
<DataArray  type="Float64"  NumberOfComponents="3"  format="ascii">46 36 28.03226  44.03226 36 30  46 34.03226 30  46 38 28.01053  44.01052 38 30  46 40 28.00787  44.00787 40 30  46 42 28.01587  44.01587 42 30  46 43.98413 30  48 34.01052 30  48 36 28.01053  48 38 28.00787  48 40 28.00787  48 42 28.00787  48 44 28.03226  46.03226 44 30  48 45.96774 30  50 34.00787 30  50 36 28.00787  50 38 28.00787  50 40 28.00787  50 42 28.00787  50 44 28.01587  50 45.98413 30  52 34.01587 30  52 36 28.01587  52 38 28.00787  52 40 28.00787  52 42 28.00787  51.98413 44 30  52 43.99213 30  53.98413 36 30  54 36.03226 30  54 38 28.03226  54 40 28.01587  53.99213 42 30  54 41.98413 30  55.96774 38 30  55.98413 40 30  42 38 30.03226  40.03226 38 32  42 36.03226 32  42 40 30.01587  40.01587 40 32  42 41.98413 32  44 34 30.03226  42.03226 34 32  44 32.03226 32  44 36 30.00787  42.00787 36 32  44 38 30.00524  44 40 30.00524  44 42 30.00524  42.00523 42 32  44 44 30.01587  42.01587 44 32  44 45.98413 32  46 32.00787 32  46 34 30.00787  46 44 30.00448  46 46 30.03226  44.03226 46 32  46 47.96774 32  48 32 30.03226  46.03226 32 32  48 30.03226 32  48 34 30.00524  48 46 30.01053  48 47.98948 32  50 30.01587 32  50 32 30.01587  50 34 30.00524  50 46 30.00787  50 47.99213 32  51.98413 32 32  52 32.00523 32  52 34 30.00524  52 44 30.00392  52 46 30.01587  52 47.98413 32  54 32.01587 32  54 34 30.01587  54 36 30.00448  54 42 30.00392  54 44 30.00629  53.98413 46 32  54 45.99371 32  55.98413 34 32  56 34.03226 32  56 36 30.03226  56 38 30.01053  56 40 30.00787  56 42 30.01587  55.99371 44 32  56 43.98413 32  57.96774 36 32  57.98948 38 32  57.99213 40 32  57.98413 42 32  42 34 32.03226  40.03226 34 34  42 32.03226 34  42 36 32.00787  40.00787 36 34  40.00523 38 34  40.00523 40 34  42 42 32.00523  40.00523 42 34  42 44 32.01587  40.01587 44 34  42 45.98413 34  44 32 32.03226  42.03226 32 34  44 30.03226 34  44 46 32.00787  42.00787 46 34  44 47.99213 34  46 30.00787 34  46 32 32.00787  46 48 32.03226  44.03226 48 34  46 49.96774 34  48 30.00524 34  48 48 32.01587  48 49.98413 34  50 30.00524 34  50 48 32.01587  50 49.98413 34  52 30.00524 34  52 32 32.00523  52 48 32.01587  52 49.98413 34  54 30.01587 34  54 32 32.01587  54 46 32.00523  53.98413 48 34  54 47.99477 34  55.98413 32 34  56 32.00787 34  56 34 32.00787  56 44 32.00523  56 46 32.03226  56 47.96774 34  57.99213 34 34  58 34.03226 34  58 36 32.03226  58 38 32.01587  58 40 32.01587  58 42 32.01587  57.99477 44 34  58 43.98413 34  57.96774 46 34  59.96774 36 34  59.98413 38 34  59.98413 40 34  59.98413 42 34  40 36 34.03226  38.03226 36 36  40 34.03226 36  40 38 34.01052  38.01052 38 36  40 40 34.00787  38.00787 40 36  40 42 34.01587  38.01587 42 36  40 43.98413 36  40.00787 34 36  42 32.00787 36  40.00449 44 36  42 46 34.03226  40.03226 46 36  42 47.96774 36  42.00787 32 36  44 30.00787 36  44 48 34.01587  42.01587 48 36  44 50 34.01587  42.01587 50 36  44 52 34.03226  42.03226 52 36  44 53.96774 36  46 30 34.03226  44.03226 30 36  46 28.03226 36  46 50 34.00787  46 52 34.00787  46 54 34.03226  44.03226 54 36  46 55.96774 36  48 28.01053 36  48 30 34.01052  48 50 34.00523  48 52 34.00787  48 54 34.00787  48 55.99213 36  50 28.00787 36  50 30 34.00787  50 50 34.00392  50 52 34.00787  50 54 34.00787  50 55.99213 36  52 28.01587 36  52 30 34.01587  52 50 34.00787  52 52 34.00787  52 54 34.01052  52 55.98948 36  53.98413 30 36  54 30.00448 36  54 48 34.00629  54 50 34.00787  54 52 34.01052  53.98948 54 36  54 53.98948 36  56 30.03226 36  56 32 34.03226  55.99371 48 36  56 47.99213 36  55.99213 50 36  55.98948 52 36  57.96774 32 36  58 32.03226 36  58 34 34.03226  58 44 34.01052  58 45.98948 36  57.99213 46 36  59.96774 34 36  59.99371 36 36  59.99551 38 36  59.99608 40 36  59.99477 42 36  59.98948 44 36  38.01052 36 38  40 34.01052 38  38.00787 38 38  38.00787 40 38  38.00787 42 38  40 44 36.03226  38.03226 44 38  40 45.96774 38  42 32 36.03226  40.03226 32 38  42 30.03226 38  40.00523 34 38  40.00787 46 38  42 48 36.00523  40.00523 48 38  42 50 36.00523  40.00523 50 38  42 52 36.00629  40.00629 52 38  42 54 36.01587  40.01587 54 38  42 55.98413 38  44 30.00524 38  44 54 36.00449  44 56 36.01052  42.01052 56 38  44 57.98948 38  44.01052 30 38  46 28.01053 38  46 56 36.00523  46 58 36.03226  44.03226 58 38  46 59.96774 38  48 28.00787 38  48 56 36.00392  48 58 36.01587  48 59.98413 38  50 28.00787 38  50 56 36.00392  50 58 36.01587  50 59.98413 38  52 28.00787 38  52 56 36.00449  52 58 36.01587  52 59.98413 38  54 28.03226 38  54 30 36.03226  54 54 36.00392  54 56 36.00629  53.98413 58 38  54 57.99371 38  55.96774 30 38  56 30.01053 38  56 48 36.00392  56 50 36.00392  56 52 36.00449  56 54 36.00629  56 56 36.03226  56 57.96774 38  57.98948 32 38  58 32.01587 38  58 46 36.03226  58 48 36.01587  58 50 36.01587  58 52 36.01587  57.99371 54 38  58 53.98413 38  57.96774 56 38  59.98413 34 38  59.99551 36 38  59.99608 38 38  59.99608 40 38  59.99608 42 38  59.99371 44 38  59.96774 46 38  59.98413 48 38  59.98413 50 38  59.98413 52 38  38.00787 36 40  40 34.00787 40  38.00787 38 40  38.00787 40 40  38.00787 42 40  38.01052 44 40  40 46 38.00523  38.00523 46 40  40 48 38.00523  38.00523 48 40  40 50 38.00523  38.00523 50 40  40 52 38.00523  38.00523 52 40  40 54 38.00787  38.00787 54 40  40 56 38.03226  38.03226 56 40  40 57.96774 40  40.01587 32 40  42 30.01587 40  40.00523 34 40  42 56 38.00523  42 58 38.03226  40.03226 58 40  42 59.96774 40  44 30.00524 40  44 58 38.00629  44 59.99371 40  44.00787 30 40  46 28.00787 40  46 60 38.01587  44.01587 60 40  46 61.98413 40  48 28.00787 40  48 60 38.01587  48 61.98413 40  50 28.00787 40  50 60 38.01587  50 61.98413 40  52 28.00787 40  52 60 38.01587  52 61.98413 40  54 28.01587 40  54 58 38.00449  54 60 38.03226  54 61.96774 40  55.98413 30 40  56 30.00787 40  56 58 38.01052  55.96774 60 40  56 59.98948 40  57.99213 32 40  58 32.01587 40  58 54 38.00449  58 56 38.01052  57.98948 58 40  58 57.98948 40  59.98413 34 40  59.99608 36 40  59.99608 38 40  59.99608 40 40  59.99608 42 40  59.99551 44 40  60 44.01587 40  60 46 38.01587  60 48 38.01587  60 50 38.01587  60 52 38.01587  60 54 38.03226  59.98948 56 40  60 55.96774 40  61.98413 46 40  61.98413 48 40  61.98413 50 40  61.98413 52 40  61.96774 54 40  38 44 40.03226  36.03226 44 42  38 42.03226 42  38 46 40.01052  36.01052 46 42  38 48 40.00523  36.00523 48 42  38 50 40.00523  36.00523 50 42  38 52 40.00629  36.00629 52 42  38 54 40.01587  36.01587 54 42  38 55.98413 42  38.01587 36 42  40 34.01587 42  38.00787 38 42  38.00787 40 42  38.00629 42 42  38.00523 56 42  40 58 40.03226  38.03226 58 42  40 59.96774 42  42 32 41.98413  40.00523 34 42  42 32.00523 42  42 60 40.03226  40.03226 60 42  42 61.96774 42  42.00523 32 42  44 30.00524 42  44 60 40.00787  44 61.99213 42  44.01587 30 42  46 28.01587 42  46 61.99551 42  48 28.00787 42  48 62 40.01587  46.01587 62 42  48 63.98413 42  50 28.00787 42  50 62 40.01587  50 63.98413 42  52 28.00787 42  52 62 40.03226  52 63.96774 42  54 30 41.98413  53.99213 30 42  54 30.00392 42  53.96774 62 42  54 61.99477 42  56 30.01587 42  56 60 40.01587  56 61.98413 42  57.98413 32 42  58 32.01587 42  58 58 40.00787  57.98413 60 42  58 59.99213 42  59.98413 34 42  59.99477 36 42  59.99608 38 42  59.99608 40 42  60 40.03226 42  60 42 40.03226  60 44 40.00787  60 56 40.01587  59.99213 58 42  60 57.98413 42  61.96774 42 42  61.99213 44 42  61.99551 46 42  62 46.01587 42  62 48 40.01587  62 50 40.01587  62 52 40.03226  62 53.96774 42  61.99477 54 42  61.98413 56 42  63.98413 48 42  63.98413 50 42  63.96774 52 42  36 48 42.01587  34.01587 48 44  36 46.01587 44  36 50 42.01587  34.01587 50 44  36 52 42.03226  34.03226 52 44  36 53.96774 44  38 42 42.03226  36.03226 42 44  38 40.03226 44  36.00629 44 44  36.00392 46 44  36.00449 54 44  38 56 42.01052  36.01052 56 44  38 57.98948 44  40 36 43.98413  38.03226 38 44  40 36.03226 44  38.01052 40 44  38.00629 58 44  40 59.99371 44  40.01587 34 44  42 32.01587 44  40.00449 36 44  40.00787 60 44  42 61.99213 44  42.01587 32 44  44 30.01587 44  44 62 42.03226  42.03226 62 44  44 63.96774 44  46 30 43.98413  46 30.00448 44  46 62 42.00787  46 63.99213 44  46.03226 30 44  48 28.03226 44  48 63.99477 44  50 28.01587 44  50 63.99477 44  52 30 43.99213  51.98413 30 44  52 30.00392 44  52 63.99371 44  54 30.00629 44  54 62 42.01052  54 63.98948 44  56 32 43.98413  55.99371 32 44  56 32.00523 44  55.98948 62 44  56 61.99551 44  58 34 43.98413  57.99477 34 44  58 34.01052 44  58 60 42.03226  58 61.96774 44  59.98948 36 44  59.99371 38 44  59.99551 40 44  60 40.00787 44  60 58 42.03226  59.96774 60 44  60 59.96774 44  61.99213 42 44  62 42.03226 44  62 44 42.03226  62 46 42.00787  62 54 42.01052  62 55.98948 44  61.99551 56 44  61.96774 58 44  63.96774 44 44  63.99213 46 44  63.99477 48 44  63.99477 50 44  63.99371 52 44  63.98948 54 44  36 46 44.01052  34.01052 46 46  36 44.01052 46  34.00787 48 46  34.00787 50 46  34.00787 52 46  36 54 44.03226  34.03226 54 46  36 55.96774 46  36.01052 42 46  38 40.01052 46  36.00392 44 46  36.00523 56 46  38 58 44.03226  36.03226 58 46  38 59.96774 46  40 38 45.96774  38.00523 40 46  40 38.00523 46  40 60 44.01587  38.01587 60 46  40 61.98413 46  42 34 45.98413  40.03226 36 46  42 34.03226 46  40.00787 38 46  42 61.99551 46  44 32 45.98413  42.00787 34 46  44 32.00787 46  42.00787 62 46  44 63.99213 46  44.03226 32 46  46 30.03226 46  46 63.99551 46  48 30 45.96774  48 30.01053 46  48 63.99608 46  50 30 45.98413  50 30.00787 46  50 63.99608 46  52 30.01587 46  52 63.99608 46  54 32 45.99371  53.98413 32 46  54 32.00523 46  54 63.99371 46  56 32.03226 46  56 62 44.01587  56 63.98413 46  57.96774 34 46  58 36 45.98948  57.99213 36 46  58 36.03226 46  57.98413 62 46  58 61.99371 46  59.96774 38 46  60 38.01587 46  60 40 44.01587  60 59.99371 46  59.99371 60 46  61.
[...]
<PointData  Scalars="f_11"> 
<DataArray  type="Float64"  Name="f_11"  format="ascii">-1.0000000000000000e+00  -1.0000000000000000e+00  -1.0000000000000000e+00  -1.0000000000000000e+00  -1.0000000000000000e+00  -1.0000000000000000e+00  -9.9999999999999989e-01  -9.9999999999999989e-01  -1.0000000000000000e+00  -1.0000000000000000e+00  -1.0000000000000000e+00  -1.0000000000000000e+00  -1.0000000000000000e+00  -1.0000000000000000e+00  -9.9999999999999989e-01  -1.0000000000000000e+00  -1.0000000000000000e+00  -1.0000000000000000e+00  -1.0000000000000000e+00  -1.0000000000000000e+00  -1.0000000000000000e+00  -9.9999999999999989e-01  -9.9999999999999989e-01  -1.0000000000000000e+00  -1.0000000000000000e+00  -9.9999999999999989e-01  -9.9999999999999989e-01  -1.0000000000000000e+00  -1.0000000000000000e+00  -1.0000000000000000e+00  -1.0000000000000000e+00  -1.0000000000000000e+00  -1.0000000000000000e+00  -1.0000000000000000e+00  -9.9999999999999989e-01  -1.0000000000000000e+00  -1.0000000000000000e+00  -1.0000000000000000e+00  -1.0000000000000000e+00  -1.0000000000000000e+00  -1.0000000000000000e+00  -1.0000000000000000e+00  -1.0000000000000000e+00  -1.0000000000000000e+00  -1.0000000000000000e+00  -1.0000000000000000e+00  -1.0000000000000000e+00  -1.0000000000000000e+00  -1.0000000000000000e+00  -1.0000000000000000e+00  -1.0000000000000000e+00  -1.0000000000000000e+00  -1.0000000000000000e+00  -1.0000000000000000e+00  -1.0000000000000000e+00  -1.0000000000000000e+00  -1.0000000000000000e+00  -1.0000000000000000e+00  -1.0000000000000000e+00  -9.9999999999999989e-01  -1.0000000000000000e+00  -1.0000000000000000e+00  -1.0000000000000000e+00  -1.0000000000000000e+00  -9.9999999999999989e-01  -1.0000000000000000e+00  -1.0000000000000000e+00  -9.9999999999999989e-01  -1.0000000000000000e+00  -1.0000000000000000e+00  -1.0000000000000000e+00  -1.0000000000000000e+00  -1.0000000000000000e+00  -9.9999999999999989e-01  -1.0000000000000000e+00  -9.9999999999999989e-01  -1.0000000000000000e+00  -1.0000000000000000e+00  -1.0000000000000000e+00  -1.0000000000000000e+00  -1.0000000000000000e+00  -1.0000000000000000e+00  -1.0000000000000000e+00  -1.0000000000000000e+00  -1.0000000000000000e+00  -1.0000000000000000e+00  -1.0000000000000000e+00  -1.0000000000000000e+00  -1.0000000000000000e+00  -1.0000000000000000e+00  -1.0000000000000000e+00  -1.0000000000000000e+00  -1.0000000000000000e+00  -1.0000000000000000e+00  -1.0000000000000000e+00  -1.0000000000000000e+00  -1.0000000000000000e+00  -1.0000000000000000e+00  -1.0000000000000000e+00  -1.0000000000000000e+00  -1.0000000000000000e+00  -1.0000000000000000e+00  -1.0000000000000000e+00  -1.0000000000000000e+00  -1.0000000000000000e+00  -1.0000000000000000e+00  -1.0000000000000000e+00  -1.0000000000000000e+00  -1.0000000000000000e+00  -9.9999999999999989e-01  -1.0000000000000000e+00  -1.0000000000000000e+00  -1.0000000000000000e+00  -1.0000000000000000e+00  -9.9999999999999989e-01  -1.0000000000000000e+00  -1.0000000000000000e+00  -9.9999999999999989e-01  -1.0000000000000000e+00  -1.0000000000000000e+00  -1.0000000000000000e+00  -1.0000000000000000e+00  -1.0000000000000000e+00  -1.0000000000000000e+00  -1.0000000000000000e+00  -1.0000000000000000e+00  -9.9999999999999989e-01  -1.0000000000000000e+00  -1.0000000000000000e+00  -1.0000000000000000e+00  -1.0000000000000000e+00  -9.9999999999999989e-01  -1.0000000000000000e+00  -1.0000000000000000e+00  -1.0000000000000000e+00  -1.0000000000000000e+00  -1.0000000000000000e+00  -1.0000000000000000e+00  -9.9999999999999989e-01  -9.9999999999999989e-01  -1.0000000000000000e+00  -1.0000000000000000e+00  -9.9999999999999989e-01  -9.9999999999999989e-01  -1.0000000000000000e+00  -1.0000000000000000e+00  -1.0000000000000000e+00  -1.0000000000000000e+00  -1.0000000000000000e+00  -1.0000000000000000e+00  -1.0000000000000000e+00  -1.0000000000000000e+00  -1.0000000000000000e+00  -1.0000000000000000e+00  -1.0000000000000000e+00  -1.0000000000000000e+00  -1.0000000000000000e+00  -9.9999999999999989e-01  -1.0000000000000000e+00  -1.0000000000000000e+00  -9.9999999999999989e-01  -1.0000000000000000e+00  -1.0000000000000000e+00  -1.0000000000000000e+00  -1.0000000000000000e+00  -1.0000000000000000e+00  -9.9999999999999989e-01  -1.0000000000000000e+00  -1.0000000000000000e+00  -1.0000000000000000e+00  -1.0000000000000000e+00  -1.0000000000000000e+00  -1.0000000000000000e+00  -1.0000000000000000e+00  -1.0000000000000000e+00  -1.0000000000000000e+00  -9.9999999999999989e-01  -1.0000000000000000e+00  -1.0000000000000000e+00  -9.9999999999999989e-01  -1.0000000000000000e+00  -1.0000000000000000e+00  -1.0000000000000000e+00  -1.0000000000000000e+00  -1.0000000000000000e+00  -9.9999999999999989e-01  -1.0000000000000000e+00  -1.0000000000000000e+00  -1.0000000000000000e+00  -1.0000000000000000e+00  -1.0000000000000000e+00  -1.0000000000000000e+00  -1.0000000000000000e+00  -1.0000000000000000e+00  -1.0000000000000000e+00  -1.0000000000000000e+00  -1.0000000000000000e+00  -1.0000000000000000e+00  -1.0000000000000000e+00  -1.0000000000000000e+00  -1.0000000000000000e+00  -9.9999999999999989e-01  -1.0000000000000000e+00  -1.0000000000000000e+00  -9.9999999999999989e-01  -1.0000000000000000e+00  -1.0000000000000000e+00  -1.0000000000000000e+00  -1.0000000000000000e+00  -1.0000000000000000e+00  -1.0000000000000000e+00  -9.9999999999999989e-01  -9.9999999999999989e-01  -1.0000000000000000e+00  -1.0000000000000000e+00  -1.0000000000000000e+00  -9.9999999999999989e-01  -1.0000000000000000e+00  -1.0000000000000000e+00  -1.0000000000000000e+00  -1.0000000000000000e+00  -1.0000000000000000e+00  -1.0000000000000000e+00  -9.9999999999999989e-01  -1.0000000000000000e+00  -1.0000000000000000e+00  -1.0000000000000000e+00  -1.0000000000000000e+00  -1.0000000000000000e+00  -1.0000000000000000e+00  -1.0000000000000000e+00  -1.0000000000000000e+00  -1.0000000000000000e+00  -1.0000000000000000e+00  -1.0000000000000000e+00  -1.0000000000000000e+00  -9.9999999999999989e-01  -1.0000000000000000e+00  -9.9999999999999989e-01  -1.0000000000000000e+00  -1.0000000000000000e+00  -1.0000000000000000e+00  -1.0000000000000000e+00  -1.0000000000000000e+00  -9.9999999999999989e-01  -1.0000000000000000e+00  -1.0000000000000000e+00  -1.0000000000000000e+00  -1.0000000000000000e+00  -1.0000000000000000e+00  -1.0000000000000000e+00  -1.0000000000000000e+00  -1.0000000000000000e+00  -1.0000000000000000e+00  -1.0000000000000000e+00  -1.0000000000000000e+00  -1.0000000000000000e+00  -1.0000000000000000e+00  -1.0000000000000000e+00  -1.0000000000000000e+00  -1.0000000000000000e+00  -1.0000000000000000e+00  -1.0000000000000000e+00  -1.0000000000000000e+00  -9.9999999999999989e-01  -1.0000000000000000e+00  -1.0000000000000000e+00  -1.0000000000000000e+00  -1.0000000000000000e+00  -1.0000000000000000e+00  -1.0000000000000000e+00  -1.0000000000000000e+00  -1.0000000000000000e+00  -1.0000000000000000e+00  -1.0000000000000000e+00  -1.0000000000000000e+00  -1.0000000000000000e+00  -9.9999999999999989e-01  -1.0000000000000000e+00  -1.0000000000000000e+00  -1.0000000000000000e+00  -1.0000000000000000e+00  -1.0000000000000000e+00  -1.0000000000000000e+00  -1.0000000000000000e+00  -1.0000000000000000e+00  -1.0000000000000000e+00  -1.0000000000000000e+00  -1.0000000000000000e+00  -1.0000000000000000e+00  -1.0000000000000000e+00  -1.0000000000000000e+00  -1.0000000000000000e+00  -1.0000000000000000e+00  -1.0000000000000000e+00  -1.0000000000000000e+00  -1.0000000000000000e+00  -1.0000000000000000e+00  -1.0000000000000000e+00  -1.0000000000000000e+00  -1.0000000000000000e+00  -1.0000000000000000e+00  -9.9999999999999989e-01  -1.0000000000000000e+00  -1.0000000000000000e+00  -1.0000000000000000e+00  -1.0000000000000000e+00  -1.0000000000000000e+00  -1.0000000000000000e+00  -1.0000000000000000e+00  -1.0000000000000000e+00  -1.0000000000000000e+00  -1.0000000000000000e+00  -1.0000000000000000e+00  -1.0000000000000000e+00  -9.9999999999999989e-01  -9.9999999999999989e-01  -1.0000000000000000e+00  -1.0000000000000000e+00  -1.0000000000000000e+00  -9.9999999999999989e-01  -1.0000000000000000e+00  -1.0000000000000000e+00  -1.0000000000000000e+00  -1.0000000000000000e+00  -1.0000000000000000e+00  -1.0000000000000000e+00  -1.0000000000000000e+00  -1.0000000000000000e+00  -1.0000000000000000e+00  -1.0000000000000000e+00  -1.0000000000000000e+00  -1.0000000000000000e+00  -1.0000000000000000e+00  -1.0000000000000000e+00  -1.0000000000000000e+00  -1.0000000000000000e+00  -1.0000000000000000e+00  -1.0000000000000000e+00  -1.0000000000000000e+00  -1.0000000000000000e+00  -1.0000000000000000e+00  -1.0000000000000000e+00  -1.0000000000000000e+00  -1.0000000000000000e+00  -1.0000000000000000e+00  -1.0000000000000000e+00  -1.0000000000000000e+00  -1.0000000000000000e+00  -1.0000000000000000e+00  -1.0000000000000000e+00  -1.0000000000000000e+00  -1.0000000000000000e+00  -1.0000000000000000e+00  -1.0000000000000000e+00  -1.0000000000000000e+00  -1.0000000000000000e+00  -1.0000000000000000e+00  -1.0000000000000000e+00  -1.0000000000000000e+00  -1.0000000000000000e+00  -1.0000000000000000e+00  -1.0000000000000000e+00  -1.0000000000000000e+00  -1.0000000000000000e+00  -1.0000000000000000e+00  -9.9999999999999989e-01  -1.0000000000000000e+00  -1.0000000000000000e+00  -1.0000000000000000e+00  -1.0000000000000000e+00  -1.0000000000000000e+00  -1.0000000000000000e+00  -1.0000000000000000e+00  -1.0000000000000000e+00  -9.9999999999999989e-01  -1.0000000000000000e+00  -1.0000000000000000e+00  -1.0000000000000000e+00  -1.0000000000000000e+00  -1.0000000000000000e+00  -1.0000000000000000e+00  -1.0000000000000000e+00  -1.0000000000000000e+00  -1.0000000000000000e+00  -1.0000000000000000e+00  -1.0000000000000000e+00  -1.0000000000000000e+00  -1.0000000000000000e+00  -1.0000000000000000e+00  -1.0000000000000000e+00  -1.0000000000000000e+00  -1.0000000000000000e+00  -1.0000000000000000e+00  -1.0000000000000000e+00  -1.0000000000000000e+00  -1.0000000000000000e+00  -1.0000000000000000e+00  -1.0000000000000000e+00  -1.0000000000000000e+00  -1.0000000000000000e+00  -9.9999999999999989e-01  -1.0000000000000000e+00  -1.0000000000000000e+00  -1.0000000000000000e+00  -1.0000000000000000e+00  -1.0000000000000000e+00  -1.0000000000000000e+00  -1.0000000000000000e+00  -1.0000000000000000e+00  -1.0000000000000000e+00  -1.0000000000000000e+00  -1.0000000000000000e+00  -1.0000000000000000e+00  -1.0000000000000000e+00  -1.0000000000000000e+00  -1.0000000000000000e+00  -1.0000000000000000e+00  -1.0000000000000000e+00  -1.0000000000000000e+00  -1.0000000000000000e+00  -1.0000000000000000e+00  -1.0000000000000000e+00  -1.0000000000000000e+00  -1.0000000000000000e+00  -9.9999999999999989e-01  -9.9999999999999989e-01  -9.9999999999999989e-01  -1.0000000000000000e+00  -1.0000000000000000e+00  -1.0000000000000000e+00  -1.0000000000000000e+00  -9.9999999999999989e-01  -1.0000000000000000e+00  -1.0000000000000000e+00  -9.9999999999999989e-01  -1.0000000000000000e+00  -9.9999999999999989e-01  -1.0000000000000000e+00  -1.0000000000000000e+00  -1.0000000000000000e+00  -1.0000000000000000e+00  -1.0000000000000000e+00  -1.0000000000000000e+00  -1.0000000000000000e+00  -1.0000000000000000e+00  -1.0000000000000000e+00  -1.0000000000000000e+00  -1.0000000000000000e+00  -1.0000000000000000e+00  -1.0000000000000000e+00  -1.0000000000000000e+00  -1.0000000000000000e+00  -1.0000000000000000e+00  -1.0000000000000000e+00  -1.0000000000000000e+00  -1.0000000000000000e+00  -1.0000000000000000e+00  -1.0000000000000000e+00  -1.0000000000000000e+00  -1.0000000000000000e+00  -1.0000000000000000e+00  -1.0000000000000000e+00  -1.0000000000000000e+00  -1.0000000000000000e+00  -1.0000000000000000e+00  -1.0000000000000000e+00  -1.0000000000000000e+00  -1.0000000000000000e+00  -1.0000000000000000e+00  -1.0000000000000000e+00  -1.0000000000000000e+00  -1.0000000000000000e+00  -1.0000000000000000e+00  -1.0000000000000000e+00  -1.0000000000000000e+00  -1.0000000000000000e+00  -1.0000000000000000e+00  -1.0000000000000000e+00  -1.0000000000000000e+00  -9.9999999999999989e-01  -1.0000000000000000e+00  -1.0000000000000000e+00  -1.0000000000000000e+00  -1.0000000000000000e+00  -1.0000000000000000e+00  -1.0000000000000000e+00  -1.0000000000000000e+00  -1.0000000000000000e+00  -1.0000000000000000e+00  -1.0000000000000000e+00  -1.0000000000000000e+00  -1.0000000000000000e+00  -1.0000000000000000e+00  -1.0000000000000000e+00  -1.0000000000000000e+00  -1.0000000000000000e+00  -1.0000000000000000e+00  -1.0000000000000000e+00  -9.9999999999999989e-01  -1.0000000000000000e+00  -1.0000000000000000e+00  -1.0000000000000000e+00  -1.0000000000000000e+00  -9.9999999999999989e-01  -9.9999999999999989e-01  -1.0000000000000000e+00  -9.9999999999999989e-01  -1.0000000000000000e+00  -1.0000000000000000e+00  -1.0000000000000000e+00  -9.9999999999999989e-01  -1.0000000000000000e+00  -9.9999999999999989e-01  -1.0000000000000000e+00  -1.0000000000000000e+00  -1.0000000000000000e+00  -1.0000000000000000e+00  -1.0000000000000000e+00  -9.9999999999999989e-01  -1.0000000000000000e+00  -1.0000000000000000e+00  -1.0000000000000000e+00  -1.0000000000000000e+00  -1.0000000000000000e+00  -9.9999999999999989e-01  -1.0000000000000000e+00  -1.0000000000000000e+00  -1.0000000000000000e+00  -1.0000000000000000e+00  -1.0000000000000000e+00  -1.0000000000000000e+00  -1.0000000000000000e+00  -1.0000000000000000e+00  -9.9999999999999989e-01  -1.0000000000000000e+00  -1.0000000000000000e+00  -1.0000000000000000e+00  -1.0000000000000000e+00  -1.0000000000000000e+00  -1.0000000000000000e+00  -9.9999999999999989e-01  -1.0000000000000000e+00  -1.0000000000000000e+00  -1.0000000000000000e+00  -1.0000000000000000e+00  -1.0000000000000000e+00  -1.0000000000000000e+00  -1.0000000000000000e+00  -1.0000000000000000e+00  -1.0000000000000000e+00  -1.0000000000000000e+00  -1.0000000000000000e+00  -1.0000000000000000e+00  -1.0000000000000000e+00  -1.0000000000000000e+00  -1.0000000000000000e+00  -1.0000000000000000e+00  -1.0000000000000000e+00  -1.0000000000000000e+00  -1.0000000000000000e+00  -1.0000000000000000e+00  -1.0000000000000000e+00  -1.0000000000000000e+00  -1.0000000000000000e+00  -1.0000000000000000e+00  -1.0000000000000000e+00  -1.0000000000000000e+00  -1.0000000000000000e+00  -1.0000000000000000e+00  -1.0000000000000000e+00  -1.0000000000000000e+00  -1.0000000000000000e+00  -1.0000000000000000e+00  -1.0000000000000000e+00  -1.0000000000000000e+00  -1.0000000000000000e+00  -1.0000000000000000e+00  -1.0000000000000000e+00  -1.0000000000000000e+00  -1.0000000000000000e+00  -1.0000000000000000e+00  -1.0000000000000000e+00  -1.0000000000000000e+00  -1.0000000000000000e+00  -1.0000000000000000e+00  -1.0000000000000000e+00  -1.0000000000000000e+00  -9.9999999999999989e-01  -9.9999999999999989e-01  -1.0000000000000000e+00  -1.0000000000000000e+00  -1.0000000000000000e+00  -1.0000000000000000e+00  -1.0000000000000000e+00  -1.0000000000000000e+00  -1.0000000000000000e+00  -1.0000000000000000e+00  -1.0000000000000000e+00  -1.0000000000000000e+00  -1.0000000000000000e+00  -1.0000000000000000e+00  -1.0000000000000000e+00  -1.0000000000000000e+00  -1.0000000000000000e+00  -1.0000000000000000e+00  -1.0000000000000000e+00  -1.0000000000000000e+00  -1.0000000000000000e+00  -1.0000000000000000e+00  -1.0000000000000000e+00  -1.0000000000000000e+00  -1.0000000000000000e+00  -1.0000000000000000e+00  -1.0000000000000000e+00  -1.0000000000000000e+00  -1.0000000000000000e+00  -1.0000000000000000e+00  -1.0000000000000000e+00  -1.0000000000000000e+00  -1.0000000000000000e+00  -1.0000000000000000e+00  -1.0000000000000000e+00  -1.0000000000000000e+00  -1.0000000000000000e+00  -1.0000000000000000e+00  -1.0000000000000000e+00  -1.0000000000000000e+00  -1.0000000000000000e+00  -1.0000000000000000e+00  -1.0000000000000000e+00  -1.0000000000000000e+00  -1.0000000000000000e+00  -9.9999999999999989e-01  -1.0000000000000000e+00  -1.0000000000000000e+00  -1.0000000000000000e+00  -1.0000000000000000e+00  -1.0000000000000000e+00  -1.0000000000000000e+00  -1.0000000000000000e+00  -1.0000000000000000e+00  -1.0000000000000000e+00  -1.0000000000000000e+00  -1.0000000000000000e+00  -1.0000000000000000e+00  -1.0000000000000000e+00  -1.0000000000000000e+00  -1.0000000000000000e+00  -1.0000000000000000e+00  -1.0000000000000000e+00  -1.0000000000000000e+00  -1.0000000000000000e+00  -1.0000000000000000e+00  -1.0000000000000000e+00  -1.0000000000000000e+00  -1.0000000000000000e+00  -9.9999999999999989e-01  -1.0000000000000000e+00  -1.0000000000000000e+00  -1.0000000000000000e+00  -1.0000000000000000e+00  -1.0000000000000000e+00  -1.0000000000000000e+00  -1.0000000000000000e+00  -1.0000000000000000e+00  -1.0000000000000000e+00  -1.0000000000000000e+00  -1.0000000000000000e+00  -1.0000000000000000e+00  -1.0000000000000000e+00  -1.0000000000000000e+00  -1.0000000000000000e+00  -1.0000000000000000e+00  -1.0000000000000000e+00  -1.0000000000000000e+00  -1.0000000000000000e+00  -1.0000000000000000e+00  -1.0000000000000000e+00  -1.0000000000000000e+00  -1.0000000000000000e+00  -1.0000000000000000e+00  -1.0000000000000000e+00  -1.0000000000000000e+00  -1.0000000000000000e+00  -1.0000000000000000e+00  -1.0000000000000000e+00  -1.0000000000000000e+00  -1.0000000000000000e+00  -1.0000000000000000e+00  -1.0000000000000000e+00  -1.0000000000000000e+00  -1.0000000000000000e+00  -1.0000000000000000e+00  -1.0000000000000000e+00  -1.0000000000000000e+00  -9.9999999999999989e-01  -1.0000000000000000e+00  -1.0000000000000000e+00  -1.0000000000000000e+00  -1.0000000000000000e+00  -1.0000000000000000e+00  -1.0000000000000000e+00  -1.0000000000000000e+00  -1.0000000000000000e+00  -1.0000000000000000e+00  -1.0000000000000000e+00  -1.0000000000000000e+00  -1.0000000000000000e+00  -1.0000000000000000e+00  -1.0000000000000000e+00  -1.0000000000000000e+00  -9.9999999999999989e-01  -1.0000000000000000e+00  -1.0000000000000000e+00  -1.0000000000000000e+00  -1.0000000000000000e+00  -1.0000000000000000e+00  -1.0000000000000000e+00  -1.0000000000000000e+00  -1.0000000000000000e+00  -1.0000000000000000e+00  -1.0000000000000000e+00  -1.0000000000000000e+00  -1.0000000000000000e+00  -1.0000000000000000e+00  -1.0000000000000000e+00  -1.0000000000000000e+00  -1.0000000000000000e+00  -1.0000000000000000e+00  -1.0000000000000000e+00  -1.0000000000000000e+00  -1.0000000000000000e+00  -1.0000000000000000e+00  -1.0000000000000000e+00  -1.0000000000000000e+00  -1.0000000000000000e+00  -1.0000000000000000e+00  -1.0000000000000000e+00  -1.0000000000000000e+00  -1.0000000000000000e+00  -9.9999999999999989e-01  -9.9999999999999989e-01  -1.0000000000000000e+00  -1.0000000000000000e+00  -1.0000000000000000e+00  -1.0000000000000000e+00  -1.0000000000000000e+00  -1.0000000000000000e+00  -1.0000000000000000e+00  -1.0000000000000000e+00  -1.0000000000000000e+00  -1.0000000000000000e+00  -1.0000000000000000e+00  -1.0000000000000000e+00  -1.0000000000000000e+00  -1.0000000000000000e+00  -1.0000000000000000e+00  -1.0000000000000000e+00  -1.0000000000000000e+00  -1.0000000000000000e+00  -1.0000000000000000e+00  -1.0000000000000000e+00  -1.0000000000000000e+00  -1.0000000000000000e+00  -1.0000000000000000e+00  -1.0000000000000000e+00  -1.0000000000000000e+00  -9.9999999999999989e-01  -1.0000000000000000e+00  -1.0000000000000000e+00  -1.0000000000000000e+00  -1.0000000000000000e+00  -1.0000000000000000e+00  -1.0000000000000000e+00  -1.0000000000000000e+00  -1.0000000000000000e+00  -1.0000000000000000e+00  -1.0000000000000000e+00  -1.0000000000000000e+00  -9.9999999999999989e-01  -1.0000000000000000e+00  -1.0000000000000000e+00  -1.0000000000000000e+00  -1.0000000000000000e+00  -1.0000000000000000e+00  -1.0000000000000000e+00  -1.0000000000000000e+00  -1.0000000000000000e+00  -1.0000000000000000e+00  -1.0000000000000000e+00  -1.0000000000000000e+00  -1.0000000000000000e+00  -1.0000000000000000e+00  -1.0000000000000000e+00  -9.9999999999999989e-01  -1.000000000000